39
Config_type=task0_76 Weight=1.0 Lattice="9.673461866 0.386938475 0.483673093 0.386938475 9.673461866 0.290203856 0.483673093 0.290203856 9.673461866" Energy=-33.3466385700 Virial="-30.90477 -1.08101 -8.79235 -1.08101 -35.51412 -0.54736 -8.79235 -0.54736 -30.33712" pbc="T T T" Properties=species:S:1:pos:R:3:forces:R:3
Mg	      2.89775      0.43613      4.70764         0.297986     -0.135258     -0.018073
Mg	      4.85865      3.26775      0.33062         0.131953     -0.081044     -0.002563
Mg	      0.54953      5.20214      3.22688        -0.256568      0.042551     -0.000236
Mg	      4.93581      7.05179      0.53639         0.085692     -0.108248     -0.181147
Mg	      0.77677      5.12528      6.98347        -0.371945      0.226149      0.288181
Mg	      6.81005      0.49413      5.18561         0.148580     -0.200899     -0.222683
Zn	      5.30562      5.46343      5.06480        -0.062221     -0.222004     -0.073008
Zn	      2.47300      9.59341      0.67401         0.119415      0.518354     -0.649542
Zn	      0.84132      2.78600      9.44997        -2.212615      0.391143      2.120732
Zn	     10.06049      9.87855      2.77069        -0.044506      0.427054      0.241728
Zn	      9.68540      7.94718      0.95689         1.668766     -0.446347     -1.834284
Zn	      0.64116      0.40690      7.22001         0.007902     -0.550784      0.766846
Zn	      8.05957      0.75789      9.85390        -0.073079      0.230524     -0.030631
Zn	      1.51745      4.91115      0.26401        -0.192836      0.235634      0.156810
Zn	      0.32388      1.47293      5.08070        -0.444811      0.596190     -0.685235
Zn	      5.47424      9.69563      2.03429         0.083807      0.343859     -0.255737
Zn	     10.08564      8.76784      5.33263        -0.053132     -0.105615     -0.020985
Zn	      5.27521      0.73127      8.23932        -0.281729     -1.780731      1.609105
Zn	      8.40223      5.06192      0.83746         1.640933      0.274306     -1.794532
Zn	      2.20627      2.53304      2.53696        -0.026750     -0.162638      0.076750
Zn	      8.11868      8.07426      2.50363        -1.908468     -0.092009      1.748486
Zn	      2.86565      7.88624      7.73713         0.012475      0.014091     -0.024563
Zn	      7.87565      2.71432      7.82427         0.267692     -0.018374      0.153418
Zn	      8.18908      8.25031      8.44548        -0.064035     -0.087516     -0.042551
Zn	      2.34541      2.32607      7.99304         2.315628     -0.541472     -2.085286
Zn	      7.71768      2.67725      2.26803         0.283222     -1.038412     -0.122977
Zn	      2.76847      7.81280      2.31316         0.038665     -0.534082      0.585817
Zn	      5.00717      2.70837      3.85088         0.040743      0.072860     -0.015586
Zn	      3.40821      4.87537      2.31814         0.164174      0.275054      0.138685
Zn	      2.44426      3.81093      5.29479         0.380794     -0.307583     -0.195500
Zn	      7.67500      7.02103      5.66336         0.552181     -0.059836     -0.279265
Zn	      3.65484      4.96068      7.98264         0.264434      0.089979     -0.327838
Zn	      7.83366      4.02129      5.42378         0.018106      0.037505     -0.055484
Zn	      6.95760      4.94507      2.47989        -1.965726      0.727053      2.032841
Zn	      6.84177      5.58721      7.96170         0.005629     -0.100167      0.044961
Zn	      2.58859      6.56809      4.89821         0.154501      0.118171     -0.010077
Zn	      5.54960      7.84469      6.75202        -0.497139      0.205218      0.282486
Zn	      5.49194      2.35880      6.76966        -0.288305      1.958391     -1.493700
Zn	      5.38770      7.76375      3.67460         0.060588     -0.211067      0.174637
24
Config_type=task0_98 Weight=1.0 Lattice="7.648304558 0.000000000 0.000000000 0.266921980 7.643645417 0.000000000 0.000000000 0.267084680 7.643639734" Energy=-26.4773712100 Virial="3.89530 -3.16719 3.31936 -3.16719 3.67771 -3.15504 3.31936 -3.15504 5.95975" pbc="T T T" Properties=species:S:1:pos:R:3:forces:R:3
Mg	      6.06913      5.65061      5.75273        -0.095868      0.341050     -0.058944
Mg	      4.29318      7.61661      0.26326        -0.425191      0.003234     -0.493781
Mg	      5.58761      1.78042      2.17334         0.465658      0.849771     -0.518761
Mg	      3.93449      4.01879      4.05839         0.454022     -0.166337     -0.391486
Mg	      2.18931      5.69820      1.92267         0.017261     -0.083129     -0.021177
Mg	      0.38244      7.76221      3.63762        -0.149234     -0.298853      0.351270
Mg	      2.19927      2.12360      5.70846        -0.410094     -0.375174      0.281691
Mg	      7.73904      3.91245      0.28050         0.065334     -0.366465     -0.298696
Zn	      5.09235      5.02722      1.00196        -0.335699     -0.342954     -0.127936
Zn	      4.86976      7.06218      3.03936         3.392663     -5.726681     -2.849338
Zn	      7.10626      6.88105      0.66889        -0.332871     -3.905090      3.355577
Zn	      6.81684      4.75355      2.84184         0.122763      0.473439      0.082423
Zn	      4.53288      0.84986      4.57815         3.644236      3.323611      5.512405
Zn	      4.92530      2.84586      6.86816        -0.128028      0.449003     -0.101610
Zn	      6.82708      3.02626      4.63303        -0.149676     -0.519581      0.673056
Zn	      6.69116      1.02123      6.93792        -0.805069      3.404640     -3.567012
Zn	      1.38407      4.69444      4.90020        -1.440820      0.215521     -1.299081
Zn	      1.41489      6.91312      6.56653        -0.700561     -0.101471      0.321601
Zn	      3.13961      6.84984      4.96813        -0.299921     -1.234145      0.252276
Zn	      2.80058      4.74026      6.68831         1.397253     -0.146336      1.485063
Zn	      1.07048      0.79902      0.67381         0.837426      0.547537      0.786780
Zn	      1.03193      2.67323      2.79569        -0.733083      0.226875      0.865408
Zn	      2.70177      2.66384      1.19499         1.309359      0.424388     -1.081004
Zn	      3.02331      0.78519      3.11995        -5.699862      3.007146     -3.158724
12
Config_type=task0_131 Weight=1.0 Lattice="5.484150052 0.274207503 -0.274207503 -2.504604363 4.612309512 0.374574414 -0.449714999 0.449714999 8.994299984" Energy=-13.7463763100 Virial="-3.74458 -3.57201 3.30506 -3.57201 -0.75714 -5.44149 3.30506 -5.44149 -0.37649" pbc="T T T" Properties=species:S:1:pos:R:3:forces:R:3
Mg	      0.18330      2.98470      0.63287        -0.145182      0.561727     -0.022417
Mg	      2.53200      2.30492      8.23601         0.302930     -0.909374      0.708949
Mg	      2.45443      1.85336      4.91852         0.541832      0.036551      0.294913
Mg	      0.23852      3.62415      4.29745        -0.540133     -0.183640     -0.309655
Zn	      0.00052      0.25700      0.01513         0.111220     -1.567999      2.209273
Zn	     -2.64466      4.69805      4.72019         0.268910     -0.135352      0.931686
Zn	      2.55672      3.68301      2.13116         0.472680     -1.675670      0.035995
Zn	     -0.36980      1.71745      7.11672         0.173575      1.718969     -2.662442
Zn	      1.36650      1.06182      2.36416         0.661203      0.193002     -0.158478
Zn	      1.34585      4.08584      7.01775        -0.782883      0.823083     -0.698180
Zn	      4.30628      1.27610      2.15511        -1.568257      1.449761     -0.621409
Zn	     -1.46067      4.24244      6.86508         0.504106     -0.311058      0.291763
12
Config_type=task0_146 Weight=1.0 Lattice="5.484150052 0.219366002 -0.054841501 -2.552098496 4.639730262 -0.210049913 -0.089943000 -0.449714999 8.994299984" Energy=-12.7679590500 Virial="1.06432 -2.96772 -1.53483 -2.96772 3.56069 2.73284 -1.53483 2.73284 0.03171" pbc="T T T" Properties=species:S:1:pos:R:3:forces:R:3
Mg	      0.32354      2.89183      0.44921        -0.265597      0.619413     -0.096418
Mg	      2.73214      1.15793      8.08777         0.282606      0.303414      0.290432
Mg	      2.97821      1.30999      4.66591        -0.028372      0.555226      0.877713
Mg	      0.22492      3.12551      3.49709        -0.217744     -0.140159      0.404567
Zn	      0.07783     -0.25148      8.81594        -0.523408     -0.323355      3.163769
Zn	      2.77682      4.39193      4.39900         0.261697      0.202089     -0.720861
Zn	      2.98448      3.07902      2.22973         0.030082      1.509629     -0.415425
Zn	      0.18618      1.05000      6.86398        -1.065496      4.395270     -1.071236
Zn	      1.70379      1.04053      2.34053        -1.552944     -1.148691     -0.515080
Zn	      1.63466      3.83070      6.61574        -2.356155     -1.221733     -0.374401
Zn	      4.09236      0.96201      1.98197         1.458040     -0.950169     -0.304350
Zn	     -1.54321      3.71682      6.64549         3.977291     -3.800934     -1.238710
12
Config_type=task0_92 Weight=1.0 Lattice="5.614725053 0.000000000 0.000000000 -2.975350969 4.761556892 0.000000000 -0.321370270 -0.579767314 9.184559985" Energy=-13.4032887900 Virial="-4.73828 3.11008 0.43359 3.11008 -1.04690 1.04925 0.43359 1.04925 -8.27315" pbc="T T T" Properties=species:S:1:pos:R:3:forces:R:3
Mg	     -0.14879      3.04473      0.36130        -0.202028      0.153470      0.750988
Mg	      2.25790      1.28275      8.47183         0.618494     -0.424423      0.266750
Mg	      2.35633      1.14922      5.19796         0.242462      0.587970     -0.101680
Mg	     -0.39140      3.20604      4.08162         0.017211     -0.572873     -0.290797
Zn	     -3.02569      4.01665      9.07627        -0.281434      0.209141     -0.138803
Zn	     -0.20495     -0.20792      4.69341        -0.167787     -0.061507     -0.104839
Zn	      2.43605      2.90847      1.99686         0.225528      0.303105      0.228167
Zn	     -0.04828      1.35705      7.10650        -1.918418     -4.097460     -0.569614
Zn	      1.15499      0.70905      2.14703        -0.071639     -0.178964      0.357352
Zn	      0.74714      3.27734      7.06998         3.162406      3.748134     -0.261164
Zn	      3.89214      0.50372      2.35219         0.120985      0.147836      0.121176
Zn	     -1.48953      3.70003      6.85869        -1.745780      0.185572     -0.257537
24
Config_type=task0_245 Weight=1.0 Lattice="7.830407047 -0.234912211 -0.078304070 -0.234912211 7.830407047 -0.078304070 -0.078304070 -0.078304070 7.830407047" Energy=-29.2901933000 Virial="-14.16288 3.03877 2.31798 3.03877 -13.63490 -0.24189 2.31798 -0.24189 -15.26857" pbc="T T T" Properties=species:S:1:pos:R:3:forces:R:3
Mg	      5.60294      5.68625      5.53461         0.237199      0.210442      0.444676
Mg	      3.84176      7.46211     -0.10611        -0.067383      0.085023     -0.089625
Mg	      5.58831      1.66625      1.76053         0.081119      0.148369      0.174969
Mg	      4.02240      3.82059      3.88965        -0.416638     -0.230491     -0.358440
Mg	      1.60485      6.02320      2.00004         0.154063     -0.480162      0.072209
Mg	      7.63379      0.00963      3.91842         0.062428     -0.244487     -0.170457
Mg	      1.98290      1.75604      5.73709        -0.123293      0.186865      0.221901
Mg	      7.54915      3.46023      0.04992         0.176777      0.251013     -0.190933
Zn	      4.95246      4.86708      0.89140        -0.557661     -0.711434     -0.098895
Zn	      4.61496      6.68666      2.73694         0.130036      0.043187      0.091128
Zn	      6.86842      6.39035      0.93972         0.179687      0.534102     -0.101734
Zn	      6.83031      4.45264      3.07039        -0.145580      0.889835     -1.117671
Zn	      4.83802      0.87949      4.84312         0.175592      0.196793     -0.076600
Zn	      4.56967      2.92186      6.72033         0.279857     -0.136323      0.142430
Zn	      6.85144      2.80981      4.73126        -0.148183     -0.933017      0.862407
Zn	      6.65449      0.79511      6.70179         0.213603     -0.070784      0.271654
Zn	      0.81183      4.99995      4.98524        -0.567408      0.141332     -0.600919
Zn	      0.95380      6.76737      7.00208        -0.252096      0.065664     -0.138488
Zn	      2.76762      6.95453      4.92076        -0.223916     -0.770550      0.341760
Zn	      2.55973      4.60053      6.52048         0.763797      0.057220      0.613642
Zn	      1.22147      1.03506      0.90787        -0.414582     -0.423476     -0.180012
Zn	      1.04541      2.78802      2.86921        -0.100485      0.163241      0.306558
Zn	      2.62458      3.13629      0.87181         0.532073      0.326380     -0.058427
Zn	      2.81598      0.60092      3.02810         0.030994      0.701260     -0.361135
12
Config_type=task0_232 Weight=1.0 Lattice="5.484150052 0.000000000 0.000000000 -2.906156761 4.650823011 0.000000000 0.313896543 0.011046126 8.988814112" Energy=-12.1721392400 Virial="6.02928 2.19606 -2.18425 2.19606 3.26499 -2.53224 -2.18425 -2.53224 3.10708" pbc="T T T" Properties=species:S:1:pos:R:3:forces:R:3
Mg	      0.19198      3.39232      0.31110        -1.443184     -0.946722      0.212327
Mg	      2.90476      1.56707      8.49105         0.084853      0.242919     -0.399492
Mg	      2.95825      1.46789      5.20498        -0.066782     -0.108509     -0.204596
Mg	      0.25189      2.87485      3.74051        -0.525454      0.317406      0.326883
Zn	      2.67770      4.59652      8.97877         1.084252      0.678609      0.312559
Zn	      2.53470      4.41919      4.75205         0.891863      1.002771     -4.724051
Zn	      2.43168      3.15198      1.95536         0.873381      1.405698      0.578911
Zn	      0.11350      1.29287      6.93300         0.685699      4.038801      0.111631
Zn	      1.64772      1.02088      2.24664        -2.270604     -1.813016      0.261884
Zn	      1.72497      3.99986      6.65021        -5.162411     -3.191622      2.671921
Zn	      3.91644      1.01749      2.11554         1.974821     -0.324923      0.176133
Zn	     -1.54222      3.93355      6.57414         3.873565     -1.301410      0.675891
110
Config_type=task0_348 Weight=1.0 Lattice="28.955782979 0.000000000 0.000000000 0.000000000 5.844695745 0.000000000 -3.447431060 0.000000000 15.550356597" Energy=-121.4012039200 Virial="-142.19644 -0.00002 -1.34862 -0.00002 -140.56566 0.00008 -1.34862 0.00008 -140.32071" pbc="T T T" Properties=species:S:1:pos:R:3:forces:R:3
Mg	      7.67938      0.00000      5.45818        -0.037630      0.000000     -0.000166
Mg	     17.82897      0.00000     10.09218         0.037631      0.000000      0.000172
Mg	     22.15727      2.92235      5.45818        -0.037627      0.000000     -0.000164
Mg	      3.35108      2.92235     10.09218         0.037625      0.000000      0.000167
Mg	      4.01855      0.00000      4.99166         0.011238      0.000000      0.073657
Mg	     21.48980      0.00000     10.55869        -0.011236      0.000000     -0.073647
Mg	     18.49644      2.92235      4.99166         0.011245     -0.000000      0.073660
Mg	      7.01191      2.92235     10.55869        -0.011242     -0.000000     -0.073649
Mg	      2.23143      0.00000     11.61612        -0.050416     -0.000000      0.008709
Mg	     23.27692      0.00000      3.93424         0.050413     -0.000000     -0.008708
Mg	     16.70932      2.92235     11.61612        -0.050406     -0.000000      0.008712
Mg	      8.79903      2.92235      3.93424         0.050410      0.000000     -0.008710
Mg	      8.48800      0.00000      8.86370        -0.098777     -0.000000      0.064844
Mg	     17.02035      0.00000      6.68665         0.098773      0.000000     -0.064835
Mg	     22.96589      2.92235      8.86370        -0.098772     -0.000000      0.064852
Mg	      2.54246      2.92235      6.68665         0.098769      0.000000     -0.064838
Mg	      3.36297      0.00000      1.67944         0.003941     -0.000000     -0.049232
Mg	     22.14538      0.00000     13.87092        -0.003942      0.000000      0.049223
Mg	     17.84087      2.92235      1.67944         0.003941     -0.000000     -0.049235
Mg	      7.66749      2.92235     13.87092        -0.003945      0.000000      0.049224
Mg	     -1.54729      0.00000     11.28956         0.178856     -0.000000     -0.298348
Mg	     27.05565      0.00000      4.26080        -0.178850     -0.000000      0.298357
Mg	     12.93060      2.92235     11.28956         0.178855      0.000000     -0.298345
Mg	     12.57775      2.92235      4.26080        -0.178857     -0.000000      0.298351
Mg	     11.79447      0.00000      9.36131         0.103401      0.000000      0.002111
Mg	     13.71389      0.00000      6.18904        -0.103399     -0.000000     -0.002103
Mg	     26.27236      2.92235      9.36131         0.103406      0.000000      0.002116
Mg	     -0.76401      2.92235      6.18904        -0.103396      0.000000     -0.002104
Mg	      9.58613      0.00000     14.88169        -0.218400      0.000000     -0.046779
Mg	     15.92222      0.00000      0.66867         0.218398      0.000000      0.046771
Mg	     24.06402      2.92235     14.88169        -0.218401      0.000000     -0.046784
Mg	      1.44433      2.92235      0.66867         0.218405      0.000000      0.046773
Mg	     -2.88138      0.00000     14.04197        -0.038944     -0.000000      0.146416
Mg	     28.38974      0.00000      1.50838         0.038952     -0.000000     -0.146428
Mg	     11.59651      2.92235     14.04197        -0.038948     -0.000000      0.146422
Mg	     13.91184      2.92235      1.50838         0.038948     -0.000000     -0.146430
Mg	      2.79944      0.00000     15.19270         0.027642      0.000000     -0.019730
Mg	     22.70891      0.00000      0.35766        -0.027642      0.000000      0.019715
Mg	     17.27733      2.92235     15.19270         0.027653      0.000000     -0.019730
Mg	      8.23102      2.92235      0.35766        -0.027646     -0.000000      0.019723
Zn	     -1.72372      0.00000      7.77518         0.000029     -0.000000     -0.000005
Zn	     12.75418      2.92235      7.77518         0.000026      0.000000     -0.000011
Zn	      5.51523      1.46117      7.77518        -0.000007     -0.000000     -0.000010
Zn	     19.99312      4.38352      7.77518        -0.000013     -0.000016     -0.000014
Zn	     19.99312      1.46117      7.77518        -0.000013      0.000016     -0.000014
Zn	      5.51523      4.38352      7.77518        -0.000007      0.000000     -0.000011
Zn	      0.87751      0.00000      6.36010         0.031263     -0.000000     -0.094897
Zn	     24.63084      0.00000      9.19026        -0.031228      0.000000      0.094894
Zn	     15.35540      2.92235      6.36010         0.031238     -0.000000     -0.094889
Zn	     10.15295      2.92235      9.19026        -0.031251      0.000000      0.094892
Zn	      3.02709      0.00000      8.28834        -0.023677     -0.000000      0.023761
Zn	     22.48126      0.00000      7.26202         0.023633     -0.000000     -0.023801
Zn	     17.50498      2.92235      8.28834        -0.023705      0.000000      0.023756
Zn	      8.00337      2.92235      7.26202         0.023690     -0.000000     -0.023777
Zn	      5.14772      0.00000     10.21658         0.008579      0.000000      0.107186
Zn	     20.36063      0.00000      5.33377        -0.008596     -0.000000     -0.107193
Zn	     19.62561      2.92235     10.21658         0.008581      0.000000      0.107153
Zn	      5.88274      2.92235      5.33377        -0.008587     -0.000000     -0.107188
Zn	      8.58741      0.00000      2.14595        -0.140196     -0.000000      0.073123
Zn	     16.92094      0.00000     13.40441         0.140176      0.000000     -0.073094
Zn	     23.06531      2.92235      2.14595        -0.140211     -0.000000      0.073119
Zn	      2.44305      2.92235     13.40441         0.140190      0.000000     -0.073112
Zn	     10.66530      0.00000      4.13639         0.010255      0.000000      0.112882
Zn	     14.84306      0.00000     11.41396        -0.010265      0.000000     -0.112888
Zn	     25.14319      2.92235      4.13639         0.010258     -0.000000      0.112856
Zn	      0.36516      2.92235     11.41396        -0.010223     -0.000000     -0.112861
Zn	      7.39244      0.00000     12.23813         0.054763      0.000000     -0.050770
Zn	     18.11591      0.00000      3.31223        -0.054769      0.000000      0.050769
Zn	     21.87033      2.92235     12.23813         0.054747     -0.000000     -0.050768
Zn	      3.63802      2.92235      3.31223        -0.054755      0.000000      0.050781
Zn	      6.22519      0.00000     15.02164         0.011128      0.000000     -0.058385
Zn	     19.28316      0.00000      0.52871        -0.011141     -0.000000      0.058423
Zn	     20.70308      2.92235     15.02164         0.011116      0.000000     -0.058401
Zn	      4.80527      2.92235      0.52871        -0.011114     -0.000000      0.058423
Zn	     13.25618      0.00000      2.76796         0.033169      0.000000      0.040143
Zn	     12.25218      0.00000     12.78239        -0.033153     -0.000000     -0.040114
Zn	     27.73407      2.92235      2.76796         0.033151     -0.000000      0.040152
Zn	     -2.22572      2.92235     12.78239        -0.033119     -0.000000     -0.040112
Zn	      1.17194      1.46117      3.85649         0.011082      0.003666      0.013662
Zn	     24.33641      4.38352     11.69387        -0.011060     -0.003669     -0.013649
Zn	     24.33641      1.46117     11.69387        -0.011060      0.003668     -0.013649
Zn	      1.17194      4.38352      3.85649         0.011082     -0.003666      0.013663
Zn	     15.64983      4.38352      3.85649         0.011072      0.003671      0.013640
Zn	      9.85852      1.46117     11.69387        -0.011084     -0.003669     -0.013644
Zn	      9.85852      4.38352     11.69387        -0.011085      0.003669     -0.013643
Zn	     15.64983      1.46117      3.85649         0.011072     -0.003671      0.013639
Zn	      6.12134      1.46117      2.69021         0.029983     -0.050508     -0.018610
Zn	     19.38702      4.38352     12.86015        -0.029993      0.050503      0.018622
Zn	     19.38702      1.46117     12.86015        -0.029993     -0.050503      0.018622
Zn	      6.12134      4.38352      2.69021         0.029982      0.050508     -0.018610
Zn	     20.59923      4.38352      2.69021         0.029963     -0.050493     -0.018604
Zn	      4.90912      1.46117     12.86015        -0.029989      0.050504      0.018615
Zn	      4.90912      4.38352     12.86015        -0.029989     -0.050504      0.018616
Zn	     20.59923      1.46117      2.69021         0.029963      0.050493     -0.018604
Zn	      0.03143      1.46117     13.96422        -0.032108     -0.190845      0.009485
Zn	     25.47692      4.38352      1.58614         0.032110      0.190857     -0.009475
Zn	     25.47692      1.46117      1.58614         0.032110     -0.190856     -0.009475
Zn	      0.03143      4.38352     13.96422        -0.032108      0.190845      0.009485
Zn	     14.50932      4.38352     13.96422        -0.032122     -0.190856      0.009502
Zn	     10.99903      1.46117      1.58614         0.032126      0.190885     -0.009481
Zn	     10.99903      4.38352      1.58614         0.032126     -0.190886     -0.009481
Zn	     14.50932      1.46117     13.96422        -0.032122      0.190856      0.009502
Zn	      0.52861      1.46117      8.84815        -0.012905      0.093822      0.097609
Zn	     24.97974      4.38352      6.70220         0.012936     -0.093816     -0.097634
Zn	     24.97974      1.46117      6.70220         0.012936      0.093817     -0.097634
Zn	      0.52861      4.38352      8.84815        -0.012904     -0.093822      0.097609
Zn	     15.00650      4.38352      8.84815        -0.012928      0.093796      0.097608
Zn	     10.50185      1.46117      6.70220         0.012922     -0.093816     -0.097651
Zn	     10.50185      4.38352      6.70220         0.012922      0.093816     -0.097651
Zn	     15.00650      1.46117      8.84815        -0.012929     -0.093796      0.097608
39
Config_type=task0_238 Weight=1.0 Lattice="9.463169217 0.189263384 0.094631692 0.189263384 9.463169217 -0.094631692 0.094631692 -0.094631692 9.463169217" Energy=-38.6502230000 Virial="-40.58483 -1.11173 -0.70144 -1.11173 -41.19787 -0.76049 -0.70144 -0.76049 -40.98602" pbc="T T T" Properties=species:S:1:pos:R:3:forces:R:3
Mg	      3.10673      9.44111      4.72589        -0.002631      0.018524      0.010446
Mg	      4.80977      3.00803      0.22360         0.037328     -0.065176     -0.174159
Mg	      0.24220      4.77993      2.93137        -0.057185     -0.017544     -0.045581
Mg	      4.86253      6.57875      9.29356        -0.004196     -0.117988      0.132768
Mg	      0.28747      4.77800      6.26095        -0.006610      0.024517      0.131361
Mg	      7.09925      9.54206      4.53391        -0.037199      0.027415     -0.043127
Zn	      4.79410      4.79580      4.90134         0.336067     -0.199863      0.110481
Zn	      2.43550      0.05850      0.10333        -0.095728     -0.070814     -0.026335
Zn	      9.29211      2.55796      0.21007         0.160835     -0.051253     -0.111776
Zn	      9.38012      0.23974      2.14871         0.127040     -0.019835      0.105689
Zn	      0.46608      7.05265      9.34542        -0.404600      0.118765      0.259520
Zn	      9.52794      0.27794      7.08535         0.074134     -0.336883      0.219538
Zn	      7.54545      9.58805      0.20334        -0.130530      0.151481     -0.039847
Zn	      1.65662      4.86996      0.19564         0.166092     -0.207465     -0.083040
Zn	      0.16493      1.65995      4.95781        -0.113729      0.219906     -0.259684
Zn	      4.59465      0.32458      1.76884         0.081183     -0.195846      0.013161
Zn	      0.25506      7.61055      4.71316         0.081200      0.030276     -0.042098
Zn	      5.11982      9.18484      8.06428         0.028844      0.268011     -0.016949
Zn	      7.91278      4.93490      0.09467        -0.009714      0.090777      0.091334
Zn	      2.08385      2.19634      1.78293         0.041713      0.082546      0.075224
Zn	      7.80476      7.44424      1.97119        -0.119956     -0.158507      0.106997
Zn	      2.20237      7.41517      7.55288         0.309202      0.013130     -0.393302
Zn	      7.67734      2.17548      7.45811        -0.114139      0.081997     -0.064077
Zn	      7.51843      7.73164      7.63572         0.003055     -0.129566     -0.142638
Zn	      2.13059      1.98225      7.56471         0.088127      0.114680     -0.012137
Zn	      7.61945      2.48926      2.28060        -0.077380     -0.072727      0.028608
Zn	      2.08665      7.33970      2.18639        -0.103103      0.109416     -0.093909
Zn	      4.58328      2.30631      3.56364         0.164270     -0.107060      0.030359
Zn	      3.59048      4.71286      2.30714        -0.740290     -0.065389     -0.117894
Zn	      2.31022      3.26387      4.72249         0.050219     -0.013324      0.032203
Zn	      7.41558      6.31901      4.94678        -0.081654      0.150272      0.000764
Zn	      3.52596      4.69370      7.35718        -0.134498     -0.063223      0.024612
Zn	      7.30961      3.63186      4.66956         0.063348     -0.138707      0.148101
Zn	      6.06379      4.87195      2.28872         0.736270      0.008833     -0.085129
Zn	      6.40252      4.63742      7.36413        -0.057037      0.001413     -0.091845
Zn	      2.67810      6.21880      4.60084        -0.415148      0.180840      0.247795
Zn	      4.96307      7.38440      6.01374         0.035727     -0.049594      0.011075
Zn	      4.95829      1.99255      6.44881        -0.032688      0.047150      0.025790
Zn	      4.77580      7.16584      2.95654         0.153362      0.340813      0.037699
39
Config_type=task0_335 Weight=1.0 Lattice="9.673461866 -0.483673093 0.483673093 -0.483673093 9.673461866 0.483673093 0.483673093 0.483673093 9.673461866" Energy=-36.2985199000 Virial="-46.01181 -0.07898 0.07898 -0.07898 -46.01180 0.07898 0.07898 0.07898 -46.01177" pbc="T T T" Properties=species:S:1:pos:R:3:forces:R:3
Mg	      2.67844      9.76928      5.46642        -0.003287     -0.044227      0.053738
Mg	      5.17439      3.16212     10.06131        -0.053738     -0.003287      0.044227
Mg	     -0.09582      4.98274      3.16212         0.044227      0.053738     -0.003287
Mg	      4.49907      6.51135      0.57950         0.053738      0.003287     -0.044226
Mg	      0.09582      5.17439      6.99502        -0.044226     -0.053738      0.003287
Mg	      6.51135      9.57764      5.65806         0.003287      0.044226     -0.053738
Zn	      4.83673      4.83673      5.32040         0.000000     -0.000000     -0.000000
Zn	      1.74923      9.56182      0.59532         0.053012      0.003904      0.037335
Zn	      9.56182      1.74923      0.59532        -0.037326      0.053011     -0.003896
Zn	      0.11165      0.11165      2.23290        -0.003902      0.037328      0.053011
Zn	      9.30143      6.95688      0.85570         0.037326     -0.053013      0.003895
Zn	      0.37203      0.37203      7.44056         0.003902     -0.037328     -0.053010
Zn	      6.95688      9.30143      0.85570        -0.053012     -0.003904     -0.037335
Zn	      1.30287      4.75950      0.31907        -0.013790     -0.030049     -0.000736
Zn	      9.83806      1.30287      5.39764         0.000735     -0.013790      0.030048
Zn	      4.91397     -0.16460      1.78654         0.030049     -0.000735     -0.013789
Zn	     -0.16460      8.37059      5.24317        -0.000736      0.013790     -0.030048
Zn	      4.75950      9.83806      8.85427        -0.030049      0.000735      0.013789
Zn	      8.37059      4.91397     10.32174         0.013789      0.030049      0.000735
Zn	      2.11220      2.11220      2.32342         0.025978      0.035205      0.017420